    4    4    1    2
  0.1859423E+02  0.3797771E-09  0.3797771E-09  0.5954564E-09  0.5000000E-15
  1.000000000000000E-004
  CAR 
 Al2As2                                  
     16    180     32
 
  0.0000000E+00  0.0000000E+00  0.0000000E+00  0.5555556E-02
    1       -6.901047     -6.901167   1.000000   1.000000
    2       -4.521907     -4.521958   1.000000   1.000000
    3       -0.732244     -0.732466   1.000000   1.000000
    4        5.741644      5.741487   1.000000   1.000000
    5        5.741645      5.741488   1.000000   1.000000
    6        5.876288      5.876164   1.000000   1.000000
    7        5.876298      5.876174   1.000000   1.000000
    8        7.024888      7.024778   0.000000   0.000000
    9        7.211975      7.211955   0.000000   0.000000
   10        8.350838      8.350769   0.000000   0.000000
   11       11.284165     11.283903   0.000000   0.000000
   12       11.284173     11.283911   0.000000   0.000000
   13       11.578241     11.577991   0.000000   0.000000
   14       11.578253     11.578002   0.000000   0.000000
   15       11.593589     11.593455   0.000000   0.000000
   16       12.573516     12.573337   0.000000   0.000000
   17       12.573520     12.573340   0.000000   0.000000
   18       13.528578     13.528303   0.000000   0.000000
   19       13.528585     13.528310   0.000000   0.000000
   20       13.997638     13.997550   0.000000   0.000000
   21       14.678540     14.678100   0.000000   0.000000
   22       15.339315     15.339079   0.000000   0.000000
   23       17.160951     17.160381   0.000000   0.000000
   24       21.989512     21.989324   0.000000   0.000000
   25       21.989522     21.989335   0.000000   0.000000
   26       23.259445     23.259280   0.000000   0.000000
   27       23.415392     23.415205   0.000000   0.000000
   28       23.415400     23.415213   0.000000   0.000000
   29       24.075776     24.075499   0.000000   0.000000
   30       24.354824     24.354668   0.000000   0.000000
   31       24.354834     24.354678   0.000000   0.000000
   32       24.801916     24.801611   0.000000   0.000000
 
  0.2631579E-01  0.0000000E+00  0.0000000E+00  0.5555556E-02
    1       -6.892943     -6.893062   1.000000   1.000000
    2       -4.516574     -4.516625   1.000000   1.000000
    3       -0.722983     -0.723205   1.000000   1.000000
    4        5.531719      5.531574   1.000000   1.000000
    5        5.622779      5.622628   1.000000   1.000000
    6        5.848006      5.847881   1.000000   1.000000
    7        5.979596      5.979466   1.000000   1.000000
    8        7.018266      7.018156   0.000000   0.000000
    9        7.366699      7.366669   0.000000   0.000000
   10        8.431024      8.430954   0.000000   0.000000
   11       11.163307     11.163064   0.000000   0.000000
   12       11.286898     11.286636   0.000000   0.000000
   13       11.457123     11.456876   0.000000   0.000000
   14       11.535671     11.535420   0.000000   0.000000
   15       11.693983     11.693830   0.000000   0.000000
   16       12.524436     12.524245   0.000000   0.000000
   17       12.620344     12.620165   0.000000   0.000000
   18       13.513988     13.513716   0.000000   0.000000
   19       13.586989     13.586715   0.000000   0.000000
   20       14.084638     14.084544   0.000000   0.000000
   21       14.789394     14.788966   0.000000   0.000000
   22       15.424972     15.424737   0.000000   0.000000
   23       17.201149     17.200581   0.000000   0.000000
   24       21.880302     21.880109   0.000000   0.000000
   25       21.960821     21.960632   0.000000   0.000000
   26       23.172909     23.172734   0.000000   0.000000
   27       23.290961     23.290775   0.000000   0.000000
   28       23.324848     23.324663   0.000000   0.000000
   29       24.163129     24.162856   0.000000   0.000000
   30       24.412396     24.412239   0.000000   0.000000
   31       24.456981     24.456824   0.000000   0.000000
   32       24.848361     24.848060   0.000000   0.000000
 
  0.5263158E-01  0.0000000E+00  0.0000000E+00  0.5555556E-02
    1       -6.868625     -6.868744   1.000000   1.000000
    2       -4.500680     -4.500730   1.000000   1.000000
    3       -0.695209     -0.695431   1.000000   1.000000
    4        5.125276      5.125140   1.000000   1.000000
    5        5.445943      5.445790   1.000000   1.000000
    6        5.680787      5.680669   1.000000   1.000000
    7        6.109632      6.109505   1.000000   1.000000
    8        6.997631      6.997521   0.000000   0.000000
    9        7.709260      7.709218   0.000000   0.000000
   10        8.647357      8.647284   0.000000   0.000000
   11       10.945669     10.945430   0.000000   0.000000
   12       11.153502     11.153261   0.000000   0.000000
   13       11.301693     11.301431   0.000000   0.000000
   14       11.421128     11.420875   0.000000   0.000000
   15       11.846026     11.845864   0.000000   0.000000
   16       12.423209     12.422993   0.000000   0.000000
   17       12.754253     12.754075   0.000000   0.000000
   18       13.439184     13.438923   0.000000   0.000000
   19       13.748972     13.748700   0.000000   0.000000
   20       14.333823     14.333712   0.000000   0.000000
   21       15.085839     15.085436   0.000000   0.000000
   22       15.665069     15.664836   0.000000   0.000000
   23       17.320333     17.319769   0.000000   0.000000
   24       21.594461     21.594255   0.000000   0.000000
   25       21.880270     21.880076   0.000000   0.000000
   26       22.988592     22.988400   0.000000   0.000000
   27       22.996588     22.996402   0.000000   0.000000
   28       23.121554     23.121370   0.000000   0.000000
   29       24.374270     24.374004   0.000000   0.000000
   30       24.509164     24.509005   0.000000   0.000000
   31       24.694294     24.694134   0.000000   0.000000
   32       24.981732     24.981436   0.000000   0.000000
 
  0.7894737E-01  0.0000000E+00  0.0000000E+00  0.5555556E-02
    1       -6.828173     -6.828292   1.000000   1.000000
    2       -4.474535     -4.474584   1.000000   1.000000
    3       -0.648951     -0.649173   1.000000   1.000000
    4        4.655381      4.655248   1.000000   1.000000
    5        5.259744      5.259588   1.000000   1.000000
    6        5.420210      5.420097   1.000000   1.000000
    7        6.217779      6.217655   0.816271   0.818582
    8        6.960633      6.960522   0.000000   0.000000
    9        8.094695      8.094646   0.000000   0.000000
   10        8.948446      8.948370   0.000000   0.000000
   11       10.713905     10.713662   0.000000   0.000000
   12       10.762123     10.761888   0.000000   0.000000
   13       11.261331     11.261076   0.000000   0.000000
   14       11.343088     11.342826   0.000000   0.000000
   15       11.943423     11.943246   0.000000   0.000000
   16       12.377281     12.377055   0.000000   0.000000
   17       12.960464     12.960286   0.000000   0.000000
   18       13.317336     13.317083   0.000000   0.000000
   19       13.987579     13.987309   0.000000   0.000000
   20       14.669329     14.669204   0.000000   0.000000
   21       15.504062     15.503683   0.000000   0.000000
   22       16.027574     16.027345   0.000000   0.000000
   23       17.514335     17.513780   0.000000   0.000000
   24       21.207985     21.207766   0.000000   0.000000
   25       21.761326     21.761125   0.000000   0.000000
   26       22.627022     22.626836   0.000000   0.000000
   27       22.788347     22.788142   0.000000   0.000000
   28       22.881832     22.881648   0.000000   0.000000
   29       24.562753     24.562593   0.000000   0.000000
   30       24.651690     24.651432   0.000000   0.000000
   31       24.988396     24.988234   0.000000   0.000000
   32       25.188660     25.188371   0.000000   0.000000
 
  0.1052632E+00  0.0000000E+00  0.0000000E+00  0.5555556E-02
    1       -6.771746     -6.771864   1.000000   1.000000
    2       -4.438675     -4.438723   1.000000   1.000000
    3       -0.584251     -0.584473   1.000000   1.000000
    4        4.165762      4.165629   1.000000   1.000000
    5        5.071439      5.071278   1.000000   1.000000
    6        5.111703      5.111594   1.000000   1.000000
    7        6.297583      6.297463   0.000001   0.000001
    8        6.903147      6.903035   0.000000   0.000000
    9        8.454264      8.454208   0.000000   0.000000
   10        9.267025      9.266935   0.000000   0.000000
   11       10.343038     10.342807   0.000000   0.000000
   12       10.518547     10.518309   0.000000   0.000000
   13       11.079268     11.079011   0.000000   0.000000
   14       11.424879     11.424617   0.000000   0.000000
   15       11.946865     11.946658   0.000000   0.000000
   16       12.471535     12.471323   0.000000   0.000000
   17       13.182141     13.181892   0.000000   0.000000
   18       13.224007     13.223830   0.000000   0.000000
   19       14.279464     14.279196   0.000000   0.000000
   20       15.026529     15.026395   0.000000   0.000000
   21       15.998010     15.997648   0.000000   0.000000
   22       16.482730     16.482508   0.000000   0.000000
   23       17.776111     17.775567   0.000000   0.000000
   24       20.778023     20.777792   0.000000   0.000000
   25       21.618989     21.618783   0.000000   0.000000
   26       22.228693     22.228505   0.000000   0.000000
   27       22.601604     22.601387   0.000000   0.000000
   28       22.635149     22.634964   0.000000   0.000000
   29       24.550575     24.550414   0.000000   0.000000
   30       24.969008     24.968758   0.000000   0.000000
   31       25.305380     25.305218   0.000000   0.000000
   32       25.454140     25.453858   0.000000   0.000000
 
  0.1315789E+00  0.0000000E+00  0.0000000E+00  0.5555556E-02
    1       -6.699561     -6.699678   1.000000   1.000000
    2       -4.393904     -4.393951   1.000000   1.000000
    3       -0.501185     -0.501406   1.000000   1.000000
    4        3.674353      3.674218   1.000000   1.000000
    5        4.779389      4.779282   1.000000   1.000000
    6        4.885163      4.885000   1.000000   1.000000
    7        6.347229      6.347111   0.000000   0.000000
    8        6.819126      6.819010   0.000000   0.000000
    9        8.750296      8.750229   0.000000   0.000000
   10        9.477521      9.477385   0.000000   0.000000
   11        9.929689      9.929463   0.000000   0.000000
   12       10.472640     10.472443   0.000000   0.000000
   13       10.889806     10.889547   0.000000   0.000000
   14       11.555912     11.555650   0.000000   0.000000
   15       11.942304     11.942077   0.000000   0.000000
   16       12.658513     12.658312   0.000000   0.000000
   17       13.052630     13.052384   0.000000   0.000000
   18       13.533127     13.532953   0.000000   0.000000
   19       14.609160     14.608895   0.000000   0.000000
   20       15.379282     15.379143   0.000000   0.000000
   21       16.540589     16.540238   0.000000   0.000000
   22       17.000435     17.000222   0.000000   0.000000
   23       18.094796     18.094268   0.000000   0.000000
   24       20.342087     20.341846   0.000000   0.000000
   25       21.465999     21.465786   0.000000   0.000000
   26       21.828860     21.828669   0.000000   0.000000
   27       22.391870     22.391682   0.000000   0.000000
   28       22.438628     22.438401   0.000000   0.000000
   29       24.477576     24.477415   0.000000   0.000000
   30       25.313902     25.313659   0.000000   0.000000
   31       25.625606     25.625444   0.000000   0.000000
   32       25.765478     25.765204   0.000000   0.000000
 
  0.1578947E+00  0.0000000E+00  0.0000000E+00  0.5555556E-02
    1       -6.611877     -6.611993   1.000000   1.000000
    2       -4.341333     -4.341379   1.000000   1.000000
    3       -0.399830     -0.400051   1.000000   1.000000
    4        3.190279      3.190142   1.000000   1.000000
    5        4.436362      4.436257   1.000000   1.000000
    6        4.703962      4.703796   1.000000   1.000000
    7        6.367843      6.367727   0.000000   0.000000
    8        6.700807      6.700686   0.000000   0.000000
    9        8.945972      8.945878   0.000000   0.000000
   10        9.469981      9.469794   0.000000   0.000000
   11        9.543565      9.543345   0.000000   0.000000
   12       10.687445     10.687306   0.000000   0.000000
   13       10.701772     10.701513   0.000000   0.000000
   14       11.739739     11.739477   0.000000   0.000000
   15       12.004884     12.004650   0.000000   0.000000
   16       12.895574     12.895379   0.000000   0.000000
   17       12.938511     12.938266   0.000000   0.000000
   18       13.879274     13.879103   0.000000   0.000000
   19       14.966980     14.966717   0.000000   0.000000
   20       15.720041     15.719899   0.000000   0.000000
   21       17.114821     17.114475   0.000000   0.000000
   22       17.541434     17.541231   0.000000   0.000000
   23       18.452514     18.452009   0.000000   0.000000
   24       19.936418     19.936165   0.000000   0.000000
   25       21.312002     21.311783   0.000000   0.000000
   26       21.453517     21.453319   0.000000   0.000000
   27       22.155903     22.155712   0.000000   0.000000
   28       22.305051     22.304816   0.000000   0.000000
   29       24.354918     24.354757   0.000000   0.000000
   30       25.679749     25.679513   0.000000   0.000000
   31       25.923498     25.923333   0.000000   0.000000
   32       26.112502     26.112235   0.000000   0.000000
 
  0.1842105E+00  0.0000000E+00  0.0000000E+00  0.5555556E-02
    1       -6.509070     -6.509185   1.000000   1.000000
    2       -4.282451     -4.282495   1.000000   1.000000
    3       -0.280307     -0.280527   1.000000   1.000000
    4        2.719301      2.719162   1.000000   1.000000
    5        4.090408      4.090302   1.000000   1.000000
    6        4.530209      4.530041   1.000000   1.000000
    7        6.362863      6.362748   0.000000   0.000000
    8        6.539953      6.539825   0.000000   0.000000
    9        8.976943      8.976776   0.000000   0.000000
   10        9.200311      9.200099   0.000000   0.000000
   11        9.397950      9.397786   0.000000   0.000000
   12       10.520386     10.520126   0.000000   0.000000
   13       11.050082     11.049966   0.000000   0.000000
   14       11.975725     11.975464   0.000000   0.000000
   15       12.162863     12.162635   0.000000   0.000000
   16       12.845027     12.844783   0.000000   0.000000
   17       13.177514     13.177325   0.000000   0.000000
   18       14.256068     14.255900   0.000000   0.000000
   19       15.346419     15.346157   0.000000   0.000000
   20       16.046073     16.045931   0.000000   0.000000
   21       17.706261     17.705915   0.000000   0.000000
   22       18.023830     18.023638   0.000000   0.000000
   23       18.816144     18.815675   0.000000   0.000000
   24       19.637790     19.637527   0.000000   0.000000
   25       21.142768     21.142556   0.000000   0.000000
   26       21.164255     21.164032   0.000000   0.000000
   27       21.928528     21.928333   0.000000   0.000000
   28       22.205578     22.205335   0.000000   0.000000
   29       24.190583     24.190422   0.000000   0.000000
   30       26.062210     26.061979   0.000000   0.000000
   31       26.141911     26.141742   0.000000   0.000000
   32       26.487174     26.486915   0.000000   0.000000
 
  0.2105263E+00  0.0000000E+00  0.0000000E+00  0.5555556E-02
    1       -6.391654     -6.391767   1.000000   1.000000
    2       -4.219221     -4.219263   1.000000   1.000000
    3       -0.142751     -0.142971   1.000000   1.000000
    4        2.265890      2.265748   1.000000   1.000000
    5        3.746726      3.746620   1.000000   1.000000
    6        4.365788      4.365617   1.000000   1.000000
    7        6.330528      6.330390   0.000000   0.000000
    8        6.337187      6.337071   0.000000   0.000000
    9        8.832982      8.832749   0.000000   0.000000
   10        8.910309      8.910107   0.000000   0.000000
   11        9.383425      9.383290   0.000000   0.000000
   12       10.348835     10.348574   0.000000   0.000000
   13       11.442721     11.442608   0.000000   0.000000
   14       12.260534     12.260276   0.000000   0.000000
   15       12.417382     12.417165   0.000000   0.000000
   16       12.775130     12.774887   0.000000   0.000000
   17       13.508498     13.508316   0.000000   0.000000
   18       14.658531     14.658367   0.000000   0.000000
   19       15.742461     15.742202   0.000000   0.000000
   20       16.353660     16.353516   0.000000   0.000000
   21       18.236030     18.235833   0.000000   0.000000
   22       18.288342     18.287986   0.000000   0.000000
   23       19.127966     19.127563   0.000000   0.000000
   24       19.654459     19.654201   0.000000   0.000000
   25       20.974179     20.973931   0.000000   0.000000
   26       21.028527     21.028299   0.000000   0.000000
   27       21.709659     21.709459   0.000000   0.000000
   28       22.145143     22.144893   0.000000   0.000000
   29       23.986624     23.986464   0.000000   0.000000
   30       26.145607     26.145431   0.000000   0.000000
   31       26.457508     26.457283   0.000000   0.000000
   32       26.843814     26.843604   0.000000   0.000000
 
  0.2368421E+00  0.0000000E+00  0.0000000E+00  0.5555556E-02
    1       -6.260251     -6.260362   1.000000   1.000000
    2       -4.154198     -4.154238   1.000000   1.000000
    3        0.012655      0.012435   1.000000   1.000000
    4        1.834049      1.833905   1.000000   1.000000
    5        3.409298      3.409190   1.000000   1.000000
    6        4.212182      4.212010   1.000000   1.000000
    7        6.071924      6.071774   1.000000   1.000000
    8        6.296254      6.296137   0.000002   0.000002
    9        8.624391      8.624129   0.000000   0.000000
   10        8.676955      8.676765   0.000000   0.000000
   11        9.370672      9.370538   0.000000   0.000000
   12       10.189125     10.188863   0.000000   0.000000
   13       11.822889     11.822771   0.000000   0.000000
   14       12.589393     12.589137   0.000000   0.000000
   15       12.730358     12.730117   0.000000   0.000000
   16       12.752298     12.752093   0.000000   0.000000
   17       13.890078     13.889907   0.000000   0.000000
   18       15.082334     15.082174   0.000000   0.000000
   19       16.150395     16.150139   0.000000   0.000000
   20       16.635228     16.635083   0.000000   0.000000
   21       18.077269     18.077054   0.000000   0.000000
   22       18.741487     18.741124   0.000000   0.000000
   23       19.395792     19.395469   0.000000   0.000000
   24       20.087598     20.087362   0.000000   0.000000
   25       20.909980     20.909748   0.000000   0.000000
   26       21.052335     21.052033   0.000000   0.000000
   27       21.498165     21.497959   0.000000   0.000000
   28       22.129073     22.128816   0.000000   0.000000
   29       23.739195     23.739035   0.000000   0.000000
   30       25.807823     25.807644   0.000000   0.000000
   31       26.492604     26.492383   0.000000   0.000000
   32       26.861417     26.861195   0.000000   0.000000
 
  0.2631579E+00  0.0000000E+00  0.0000000E+00  0.5555556E-02
    1       -6.115663     -6.115772   1.000000   1.000000
    2       -4.090658     -4.090696   1.000000   1.000000
    3        0.185694      0.185475   1.000000   1.000000
    4        1.427830      1.427683   1.000000   1.000000
    5        3.081597      3.081487   1.000000   1.000000
    6        4.070578      4.070404   1.000000   1.000000
    7        5.770155      5.769994   1.000000   1.000000
    8        6.245380      6.245262   0.146744   0.148670
    9        8.409380      8.409103   0.000000   0.000000
   10        8.496227      8.496048   0.000000   0.000000
   11        9.335652      9.335510   0.000000   0.000000
   12       10.042579     10.042316   0.000000   0.000000
   13       12.178538     12.178412   0.000000   0.000000
   14       12.711245     12.711007   0.000000   0.000000
   15       12.956998     12.956744   0.000000   0.000000
   16       13.147175     13.146981   0.000000   0.000000
   17       14.314871     14.314712   0.000000   0.000000
   18       15.523243     15.523088   0.000000   0.000000
   19       16.564898     16.564644   0.000000   0.000000
   20       16.872223     16.872067   0.000000   0.000000
   21       17.782278     17.782061   0.000000   0.000000
   22       18.802263     18.801944   0.000000   0.000000
   23       19.875107     19.874791   0.000000   0.000000
   24       20.713999     20.713780   0.000000   0.000000
   25       20.814105     20.813869   0.000000   0.000000
   26       21.291997     21.291783   0.000000   0.000000
   27       21.376217     21.375885   0.000000   0.000000
   28       22.162949     22.162685   0.000000   0.000000
   29       23.441342     23.441181   0.000000   0.000000
   30       25.242914     25.242738   0.000000   0.000000
   31       26.161419     26.161187   0.000000   0.000000
   32       27.266155     27.265944   0.000000   0.000000
 
  0.2894737E+00  0.0000000E+00  0.0000000E+00  0.5555556E-02
    1       -5.958961     -5.959067   1.000000   1.000000
    2       -4.032699     -4.032736   1.000000   1.000000
    3        0.376081      0.375863   1.000000   1.000000
    4        1.051592      1.051443   1.000000   1.000000
    5        2.767065      2.766952   1.000000   1.000000
    6        3.941918      3.941742   1.000000   1.000000
    7        5.435752      5.435581   1.000000   1.000000
    8        6.189309      6.189190   0.998218   0.998265
    9        8.206019      8.205732   0.000000   0.000000
   10        8.359320      8.359151   0.000000   0.000000
   11        9.283851      9.283700   0.000000   0.000000
   12        9.910081      9.909818   0.000000   0.000000
   13       12.509758     12.509625   0.000000   0.000000
   14       12.717389     12.717154   0.000000   0.000000
   15       13.357984     13.357733   0.000000   0.000000
   16       13.585579     13.585393   0.000000   0.000000
   17       14.763954     14.763808   0.000000   0.000000
   18       15.976514     15.976364   0.000000   0.000000
   19       16.979058     16.978807   0.000000   0.000000
   20       16.991748     16.991545   0.000000   0.000000
   21       17.541139     17.540961   0.000000   0.000000
   22       18.626523     18.626238   0.000000   0.000000
   23       20.517071     20.516743   0.000000   0.000000
   24       20.747544     20.747303   0.000000   0.000000
   25       21.088044     21.087819   0.000000   0.000000
   26       21.409335     21.409127   0.000000   0.000000
   27       21.821846     21.821520   0.000000   0.000000
   28       22.252412     22.252141   0.000000   0.000000
   29       23.093185     23.093018   0.000000   0.000000
   30       24.603653     24.603483   0.000000   0.000000
   31       25.893245     25.892999   0.000000   0.000000
   32       26.845972     26.845826   0.000000   0.000000
 
  0.3157895E+00  0.0000000E+00  0.0000000E+00  0.5555556E-02
    1       -5.791559     -5.791662   1.000000   1.000000
    2       -3.985288     -3.985324   1.000000   1.000000
    3        0.583438      0.583221   1.000000   1.000000
    4        0.710143      0.709993   1.000000   1.000000
    5        2.469352      2.469236   1.000000   1.000000
    6        3.826956      3.826779   1.000000   1.000000
    7        5.080214      5.080034   1.000000   1.000000
    8        6.132064      6.131944   1.000000   1.000000
    9        8.021262      8.020968   0.000000   0.000000
   10        8.256283      8.256121   0.000000   0.000000
   11        9.224024      9.223865   0.000000   0.000000
   12        9.792247      9.791983   0.000000   0.000000
   13       12.747441     12.747210   0.000000   0.000000
   14       12.821885     12.821746   0.000000   0.000000
   15       13.787022     13.786775   0.000000   0.000000
   16       14.055028     14.054850   0.000000   0.000000
   17       15.205615     15.205480   0.000000   0.000000
   18       16.435935     16.435791   0.000000   0.000000
   19       16.840012     16.839749   0.000000   0.000000
   20       17.383129     17.382883   0.000000   0.000000
   21       17.540202     17.540076   0.000000   0.000000
   22       18.414221     18.413949   0.000000   0.000000
   23       20.719250     20.719005   0.000000   0.000000
   24       20.882360     20.882122   0.000000   0.000000
   25       21.215702     21.215364   0.000000   0.000000
   26       22.129142     22.128947   0.000000   0.000000
   27       22.214058     22.213796   0.000000   0.000000
   28       22.407864     22.407584   0.000000   0.000000
   29       22.764531     22.764322   0.000000   0.000000
   30       23.959339     23.959176   0.000000   0.000000
   31       25.702869     25.702614   0.000000   0.000000
   32       26.239732     26.239573   0.000000   0.000000
 
  0.3421053E+00  0.0000000E+00  0.0000000E+00  0.5555556E-02
    1       -5.615318     -5.615418   1.000000   1.000000
    2       -3.954086     -3.954121   1.000000   1.000000
    3        0.408606      0.408455   1.000000   1.000000
    4        0.807258      0.807041   1.000000   1.000000
    5        2.192569      2.192448   1.000000   1.000000
    6        3.726291      3.726113   1.000000   1.000000
    7        4.713683      4.713495   1.000000   1.000000
    8        6.076928      6.076806   1.000000   1.000000
    9        7.858398      7.858100   0.000000   0.000000
   10        8.178585      8.178430   0.000000   0.000000
   11        9.163098      9.162932   0.000000   0.000000
   12        9.689506      9.689242   0.000000   0.000000
   13       12.798961     12.798734   0.000000   0.000000
   14       13.121616     13.121473   0.000000   0.000000
   15       14.238581     14.238338   0.000000   0.000000
   16       14.543390     14.543219   0.000000   0.000000
   17       15.591261     15.591131   0.000000   0.000000
   18       16.546803     16.546523   0.000000   0.000000
   19       16.892190     16.892052   0.000000   0.000000
   20       17.661858     17.661743   0.000000   0.000000
   21       17.763388     17.763146   0.000000   0.000000
   22       18.261185     18.260917   0.000000   0.000000
   23       20.671199     20.670946   0.000000   0.000000
   24       20.741469     20.741219   0.000000   0.000000
   25       21.938251     21.937921   0.000000   0.000000
   26       22.057106     22.056926   0.000000   0.000000
   27       22.585175     22.584913   0.000000   0.000000
   28       22.888025     22.887758   0.000000   0.000000
   29       22.903585     22.903376   0.000000   0.000000
   30       23.341308     23.341153   0.000000   0.000000
   31       25.370539     25.370340   0.000000   0.000000
   32       25.928537     25.928291   0.000000   0.000000
 
  0.3684211E+00  0.0000000E+00  0.0000000E+00  0.5555556E-02
    1       -5.432811     -5.432907   1.000000   1.000000
    2       -3.944885     -3.944921   1.000000   1.000000
    3        0.151932      0.151782   1.000000   1.000000
    4        1.046777      1.046562   1.000000   1.000000
    5        1.941484      1.941358   1.000000   1.000000
    6        3.640404      3.640225   1.000000   1.000000
    7        4.344280      4.344087   1.000000   1.000000
    8        6.026506      6.026383   1.000000   1.000000
    9        7.719159      7.718858   0.000000   0.000000
   10        8.119892      8.119741   0.000000   0.000000
   11        9.105935      9.105763   0.000000   0.000000
   12        9.602168      9.601903   0.000000   0.000000
   13       12.868097     12.867876   0.000000   0.000000
   14       13.414731     13.414585   0.000000   0.000000
   15       14.706367     14.706128   0.000000   0.000000
   16       15.031084     15.030926   0.000000   0.000000
   17       15.860321     15.860185   0.000000   0.000000
   18       16.243082     16.242792   0.000000   0.000000
   19       17.329473     17.329342   0.000000   0.000000
   20       17.783967     17.783855   0.000000   0.000000
   21       18.102062     18.101825   0.000000   0.000000
   22       18.247868     18.247605   0.000000   0.000000
   23       20.455110     20.454839   0.000000   0.000000
   24       20.829487     20.829231   0.000000   0.000000
   25       21.564394     21.564236   0.000000   0.000000
   26       22.711129     22.710772   0.000000   0.000000
   27       22.768005     22.767859   0.000000   0.000000
   28       22.854654     22.854380   0.000000   0.000000
   29       23.158494     23.158278   0.000000   0.000000
   30       23.651162     23.650968   0.000000   0.000000
   31       24.782367     24.782180   0.000000   0.000000
   32       26.033048     26.032801   0.000000   0.000000
 
  0.3947368E+00  0.0000000E+00  0.0000000E+00  0.5555556E-02
    1       -5.247755     -5.247847   1.000000   1.000000
    2       -3.962358     -3.962396   1.000000   1.000000
    3       -0.055974     -0.056122   1.000000   1.000000
    4        1.300724      1.300509   1.000000   1.000000
    5        1.721701      1.721569   1.000000   1.000000
    6        3.569668      3.569489   1.000000   1.000000
    7        3.978538      3.978339   1.000000   1.000000
    8        5.982813      5.982689   1.000000   1.000000
    9        7.604504      7.604199   0.000000   0.000000
   10        8.075875      8.075727   0.000000   0.000000
   11        9.055838      9.055662   0.000000   0.000000
   12        9.530459      9.530194   0.000000   0.000000
   13       12.949115     12.948902   0.000000   0.000000
   14       13.705093     13.704944   0.000000   0.000000
   15       15.182086     15.181853   0.000000   0.000000
   16       15.450626     15.450493   0.000000   0.000000